 title="zbzh"
 variables ="r","z","T(K)"
 zone t= "chamber",i= 25 , j= 68 , f= point
    0.0000    0.0387   2300.03
    0.0007    0.0387   2300.03
    0.0020    0.0387   2300.21
    0.0033    0.0387   2300.56
    0.0047    0.0387   2301.08
    0.0060    0.0387   2301.78
    0.0073    0.0387   2302.66
    0.0086    0.0387   2303.65
    0.0097    0.0387   2304.76
    0.0109    0.0387   2306.08
    0.0121    0.0387   2307.59
    0.0133    0.0387   2309.30
    0.0144    0.0387   2311.20
    0.0158    0.0387   2313.71
    0.0175    0.0387   2316.77
    0.0192    0.0387   2319.94
    0.0208    0.0387   2323.26
    0.0225    0.0387   2326.73
    0.0242    0.0387   2330.36
    0.0254    0.0387   2333.15
    0.0261    0.0387   2335.11
    0.0269    0.0387   2337.35
    0.0276    0.0387   2339.87
    0.0286    0.0387   2343.53
    0.0299    0.0387   2348.35
    0.0000    0.0412   2293.12
    0.0007    0.0412   2293.12
    0.0020    0.0412   2293.32
    0.0033    0.0412   2293.70
    0.0047    0.0412   2294.29
    0.0060    0.0412   2295.06
    0.0073    0.0412   2296.03
    0.0086    0.0412   2297.14
    0.0097    0.0412   2298.39
    0.0109    0.0412   2299.85
    0.0121    0.0412   2301.53
    0.0133    0.0412   2303.43
    0.0144    0.0412   2305.54
    0.0158    0.0412   2308.32
    0.0175    0.0412   2311.73
    0.0192    0.0412   2315.26
    0.0208    0.0412   2318.96
    0.0225    0.0412   2322.84
    0.0242    0.0412   2326.92
    0.0254    0.0412   2330.09
    0.0261    0.0412   2332.30
    0.0269    0.0412   2334.80
    0.0276    0.0412   2337.60
    0.0286    0.0412   2341.66
    0.0299    0.0412   2347.00
    0.0000    0.0437   2286.73
    0.0007    0.0437   2286.73
    0.0020    0.0437   2286.94
    0.0033    0.0437   2287.36
    0.0047    0.0437   2288.00
    0.0060    0.0437   2288.85
    0.0073    0.0437   2289.91
    0.0086    0.0437   2291.12
    0.0097    0.0437   2292.49
    0.0109    0.0437   2294.09
    0.0121    0.0437   2295.92
    0.0133    0.0437   2297.98
    0.0144    0.0437   2300.27
    0.0158    0.0437   2303.29
    0.0175    0.0437   2306.99
    0.0192    0.0437   2310.85
    0.0208    0.0437   2314.89
    0.0225    0.0437   2319.14
    0.0242    0.0437   2323.63
    0.0254    0.0437   2327.12
    0.0261    0.0437   2329.55
    0.0269    0.0437   2332.29
    0.0276    0.0437   2335.34
    0.0286    0.0437   2339.74
    0.0299    0.0437   2345.55
    0.0000    0.0455   2282.61
    0.0007    0.0455   2282.61
    0.0020    0.0455   2282.83
    0.0033    0.0455   2283.28
    0.0047    0.0455   2283.95
    0.0060    0.0455   2284.85
    0.0073    0.0455   2285.97
    0.0086    0.0455   2287.25
    0.0097    0.0455   2288.68
    0.0109    0.0455   2290.36
    0.0121    0.0455   2292.29
    0.0133    0.0455   2294.45
    0.0144    0.0455   2296.85
    0.0158    0.0455   2300.01
    0.0175    0.0455   2303.89
    0.0192    0.0455   2307.93
    0.0208    0.0455   2312.17
    0.0225    0.0455   2316.64
    0.0242    0.0455   2321.36
    0.0254    0.0455   2325.04
    0.0261    0.0455   2327.59
    0.0269    0.0455   2330.46
    0.0276    0.0455   2333.65
    0.0286    0.0455   2338.28
    0.0299    0.0455   2344.46
    0.0000    0.0465   2280.55
    0.0007    0.0465   2280.55
    0.0020    0.0465   2280.78
    0.0033    0.0465   2281.24
    0.0047    0.0465   2281.93
    0.0060    0.0465   2282.85
    0.0073    0.0465   2284.00
    0.0086    0.0465   2285.31
    0.0097    0.0465   2286.79
    0.0109    0.0465   2288.51
    0.0121    0.0465   2290.48
    0.0133    0.0465   2292.69
    0.0144    0.0465   2295.15
    0.0158    0.0465   2298.38
    0.0175    0.0465   2302.36
    0.0192    0.0465   2306.50
    0.0208    0.0465   2310.85
    0.0225    0.0465   2315.42
    0.0242    0.0465   2320.26
    0.0254    0.0465   2324.03
    0.0261    0.0465   2326.63
    0.0269    0.0465   2329.57
    0.0276    0.0465   2332.82
    0.0286    0.0465   2337.54
    0.0299    0.0465   2343.86
    0.0000    0.0475   2278.86
    0.0007    0.0475   2278.86
    0.0020    0.0475   2279.09
    0.0033    0.0475   2279.56
    0.0047    0.0475   2280.27
    0.0060    0.0475   2281.22
    0.0073    0.0475   2282.40
    0.0086    0.0475   2283.74
    0.0097    0.0475   2285.25
    0.0109    0.0475   2287.01
    0.0121    0.0475   2289.02
    0.0133    0.0475   2291.29
    0.0144    0.0475   2293.79
    0.0158    0.0475   2297.09
    0.0175    0.0475   2301.15
    0.0192    0.0475   2305.38
    0.0208    0.0475   2309.82
    0.0225    0.0475   2314.49
    0.0242    0.0475   2319.42
    0.0254    0.0475   2323.26
    0.0261    0.0475   2325.91
    0.0269    0.0475   2328.89
    0.0276    0.0475   2332.18
    0.0286    0.0475   2336.95
    0.0299    0.0475   2343.29
    0.0000    0.0494   2276.21
    0.0007    0.0494   2276.21
    0.0020    0.0494   2276.46
    0.0033    0.0494   2276.95
    0.0047    0.0494   2277.69
    0.0060    0.0494   2278.67
    0.0073    0.0494   2279.90
    0.0086    0.0494   2281.30
    0.0097    0.0494   2282.86
    0.0109    0.0494   2284.69
    0.0121    0.0494   2286.78
    0.0133    0.0494   2289.12
    0.0144    0.0494   2291.71
    0.0158    0.0494   2295.13
    0.0175    0.0494   2299.32
    0.0192    0.0494   2303.70
    0.0208    0.0494   2308.29
    0.0225    0.0494   2313.12
    0.0242    0.0494   2318.20
    0.0254    0.0494   2322.14
    0.0261    0.0494   2324.85
    0.0269    0.0494   2327.88
    0.0276    0.0494   2331.21
    0.0286    0.0494   2336.00
    0.0299    0.0494   2342.27
    0.0000    0.0521   2272.67
    0.0007    0.0521   2272.67
    0.0020    0.0521   2272.92
    0.0033    0.0521   2273.44
    0.0047    0.0521   2274.21
    0.0060    0.0521   2275.24
    0.0073    0.0521   2276.53
    0.0086    0.0521   2278.00
    0.0097    0.0521   2279.63
    0.0109    0.0521   2281.54
    0.0121    0.0521   2283.72
    0.0133    0.0521   2286.15
    0.0144    0.0521   2288.85
    0.0158    0.0521   2292.39
    0.0175    0.0521   2296.74
    0.0192    0.0521   2301.29
    0.0208    0.0521   2306.04
    0.0225    0.0521   2311.03
    0.0242    0.0521   2316.27
    0.0254    0.0521   2320.31
    0.0261    0.0521   2323.07
    0.0269    0.0521   2326.14
    0.0276    0.0521   2329.51
    0.0286    0.0521   2334.33
    0.0299    0.0521   2340.61
    0.0000    0.0549   2269.28
    0.0007    0.0549   2269.28
    0.0020    0.0549   2269.55
    0.0033    0.0549   2270.08
    0.0047    0.0549   2270.89
    0.0060    0.0549   2271.96
    0.0073    0.0549   2273.30
    0.0086    0.0549   2274.81
    0.0097    0.0549   2276.51
    0.0109    0.0549   2278.48
    0.0121    0.0549   2280.72
    0.0133    0.0549   2283.24
    0.0144    0.0549   2286.01
    0.0158    0.0549   2289.66
    0.0175    0.0549   2294.14
    0.0192    0.0549   2298.81
    0.0208    0.0549   2303.70
    0.0225    0.0549   2308.81
    0.0242    0.0549   2314.16
    0.0254    0.0549   2318.27
    0.0261    0.0549   2321.07
    0.0269    0.0549   2324.18
    0.0276    0.0549   2327.59
    0.0286    0.0549   2332.46
    0.0299    0.0549   2338.79
    0.0000    0.0576   2265.99
    0.0007    0.0576   2265.99
    0.0020    0.0576   2266.26
    0.0033    0.0576   2266.81
    0.0047    0.0576   2267.64
    0.0060    0.0576   2268.74
    0.0073    0.0576   2270.12
    0.0086    0.0576   2271.69
    0.0097    0.0576   2273.42
    0.0109    0.0576   2275.45
    0.0121    0.0576   2277.75
    0.0133    0.0576   2280.32
    0.0144    0.0576   2283.16
    0.0158    0.0576   2286.89
    0.0175    0.0576   2291.48
    0.0192    0.0576   2296.25
    0.0208    0.0576   2301.24
    0.0225    0.0576   2306.45
    0.0242    0.0576   2311.90
    0.0254    0.0576   2316.07
    0.0261    0.0576   2318.91
    0.0269    0.0576   2322.06
    0.0276    0.0576   2325.50
    0.0286    0.0576   2330.42
    0.0299    0.0576   2336.81
    0.0000    0.0604   2262.73
    0.0007    0.0604   2262.73
    0.0020    0.0604   2263.02
    0.0033    0.0604   2263.58
    0.0047    0.0604   2264.43
    0.0060    0.0604   2265.56
    0.0073    0.0604   2266.97
    0.0086    0.0604   2268.56
    0.0097    0.0604   2270.34
    0.0109    0.0604   2272.41
    0.0121    0.0604   2274.75
    0.0133    0.0604   2277.38
    0.0144    0.0604   2280.27
    0.0158    0.0604   2284.06
    0.0175    0.0604   2288.73
    0.0192    0.0604   2293.59
    0.0208    0.0604   2298.66
    0.0225    0.0604   2303.96
    0.0242    0.0604   2309.48
    0.0254    0.0604   2313.71
    0.0261    0.0604   2316.59
    0.0269    0.0604   2319.77
    0.0276    0.0604   2323.26
    0.0286    0.0604   2328.22
    0.0299    0.0604   2334.67
    0.0000    0.0631   2259.48
    0.0007    0.0631   2259.48
    0.0020    0.0631   2259.76
    0.0033    0.0631   2260.34
    0.0047    0.0631   2261.20
    0.0060    0.0631   2262.35
    0.0073    0.0631   2263.79
    0.0086    0.0631   2265.41
    0.0097    0.0631   2267.22
    0.0109    0.0631   2269.32
    0.0121    0.0631   2271.70
    0.0133    0.0631   2274.36
    0.0144    0.0631   2277.30
    0.0158    0.0631   2281.15
    0.0175    0.0631   2285.88
    0.0192    0.0631   2290.81
    0.0208    0.0631   2295.95
    0.0225    0.0631   2301.32
    0.0242    0.0631   2306.92
    0.0254    0.0631   2311.21
    0.0261    0.0631   2314.12
    0.0269    0.0631   2317.34
    0.0276    0.0631   2320.85
    0.0286    0.0631   2325.87
    0.0299    0.0631   2332.37
    0.0000    0.0659   2256.18
    0.0007    0.0659   2256.18
    0.0020    0.0659   2256.47
    0.0033    0.0659   2257.06
    0.0047    0.0659   2257.93
    0.0060    0.0659   2259.10
    0.0073    0.0659   2260.55
    0.0086    0.0659   2262.20
    0.0097    0.0659   2264.03
    0.0109    0.0659   2266.15
    0.0121    0.0659   2268.57
    0.0133    0.0659   2271.26
    0.0144    0.0659   2274.23
    0.0158    0.0659   2278.13
    0.0175    0.0659   2282.92
    0.0192    0.0659   2287.90
    0.0208    0.0659   2293.11
    0.0225    0.0659   2298.54
    0.0242    0.0659   2304.21
    0.0254    0.0659   2308.54
    0.0261    0.0659   2311.48
    0.0269    0.0659   2314.74
    0.0276    0.0659   2318.29
    0.0286    0.0659   2323.35
    0.0299    0.0659   2329.92
    0.0000    0.0686   2252.82
    0.0007    0.0686   2252.82
    0.0020    0.0686   2253.11
    0.0033    0.0686   2253.70
    0.0047    0.0686   2254.59
    0.0060    0.0686   2255.77
    0.0073    0.0686   2257.24
    0.0086    0.0686   2258.90
    0.0097    0.0686   2260.75
    0.0109    0.0686   2262.90
    0.0121    0.0686   2265.33
    0.0133    0.0686   2268.05
    0.0144    0.0686   2271.05
    0.0158    0.0686   2274.98
    0.0175    0.0686   2279.81
    0.0192    0.0686   2284.85
    0.0208    0.0686   2290.10
    0.0225    0.0686   2295.59
    0.0242    0.0686   2301.32
    0.0254    0.0686   2305.70
    0.0261    0.0686   2308.67
    0.0269    0.0686   2311.96
    0.0276    0.0686   2315.55
    0.0286    0.0686   2320.67
    0.0299    0.0686   2327.31
    0.0000    0.0710   2249.87
    0.0007    0.0710   2249.87
    0.0020    0.0710   2250.17
    0.0033    0.0710   2250.76
    0.0047    0.0710   2251.65
    0.0060    0.0710   2252.84
    0.0073    0.0710   2254.32
    0.0086    0.0710   2255.99
    0.0097    0.0710   2257.85
    0.0109    0.0710   2260.01
    0.0121    0.0710   2262.46
    0.0133    0.0710   2265.20
    0.0144    0.0710   2268.21
    0.0158    0.0710   2272.16
    0.0175    0.0710   2277.02
    0.0192    0.0710   2282.09
    0.0208    0.0710   2287.38
    0.0225    0.0710   2292.90
    0.0242    0.0710   2298.67
    0.0254    0.0710   2303.09
    0.0261    0.0710   2306.09
    0.0269    0.0710   2309.41
    0.0276    0.0710   2313.03
    0.0286    0.0710   2318.20
    0.0299    0.0710   2324.92
    0.0000    0.0730   2247.50
    0.0007    0.0730   2247.50
    0.0020    0.0730   2247.80
    0.0033    0.0730   2248.39
    0.0047    0.0730   2249.28
    0.0060    0.0730   2250.47
    0.0073    0.0730   2251.96
    0.0086    0.0730   2253.64
    0.0097    0.0730   2255.50
    0.0109    0.0730   2257.67
    0.0121    0.0730   2260.13
    0.0133    0.0730   2262.87
    0.0144    0.0730   2265.89
    0.0158    0.0730   2269.86
    0.0175    0.0730   2274.73
    0.0192    0.0730   2279.82
    0.0208    0.0730   2285.12
    0.0225    0.0730   2290.67
    0.0242    0.0730   2296.46
    0.0254    0.0730   2300.90
    0.0261    0.0730   2303.92
    0.0269    0.0730   2307.25
    0.0276    0.0730   2310.89
    0.0286    0.0730   2316.09
    0.0299    0.0730   2322.85
    0.0000    0.0750   2245.25
    0.0007    0.0750   2245.25
    0.0020    0.0750   2245.55
    0.0033    0.0750   2246.15
    0.0047    0.0750   2247.04
    0.0060    0.0750   2248.23
    0.0073    0.0750   2249.72
    0.0086    0.0750   2251.40
    0.0097    0.0750   2253.27
    0.0109    0.0750   2255.44
    0.0121    0.0750   2257.90
    0.0133    0.0750   2260.65
    0.0144    0.0750   2263.68
    0.0158    0.0750   2267.64
    0.0175    0.0750   2272.53
    0.0192    0.0750   2277.62
    0.0208    0.0750   2282.93
    0.0225    0.0750   2288.49
    0.0242    0.0750   2294.29
    0.0254    0.0750   2298.74
    0.0261    0.0750   2301.76
    0.0269    0.0750   2305.10
    0.0276    0.0750   2308.75
    0.0286    0.0750   2313.95
    0.0299    0.0750   2320.73
    0.0000    0.0770   2243.14
    0.0007    0.0770   2243.14
    0.0020    0.0770   2243.44
    0.0033    0.0770   2244.04
    0.0047    0.0770   2244.93
    0.0060    0.0770   2246.12
    0.0073    0.0770   2247.61
    0.0086    0.0770   2249.29
    0.0097    0.0770   2251.16
    0.0109    0.0770   2253.33
    0.0121    0.0770   2255.79
    0.0133    0.0770   2258.53
    0.0144    0.0770   2261.56
    0.0158    0.0770   2265.53
    0.0175    0.0770   2270.41
    0.0192    0.0770   2275.50
    0.0208    0.0770   2280.81
    0.0225    0.0770   2286.36
    0.0242    0.0770   2292.16
    0.0254    0.0770   2296.60
    0.0261    0.0770   2299.62
    0.0269    0.0770   2302.95
    0.0276    0.0770   2306.59
    0.0286    0.0770   2311.79
    0.0299    0.0770   2318.56
    0.0000    0.0790   2241.17
    0.0007    0.0790   2241.17
    0.0020    0.0790   2241.46
    0.0033    0.0790   2242.06
    0.0047    0.0790   2242.95
    0.0060    0.0790   2244.14
    0.0073    0.0790   2245.62
    0.0086    0.0790   2247.30
    0.0097    0.0790   2249.16
    0.0109    0.0790   2251.33
    0.0121    0.0790   2253.78
    0.0133    0.0790   2256.52
    0.0144    0.0790   2259.54
    0.0158    0.0790   2263.50
    0.0175    0.0790   2268.37
    0.0192    0.0790   2273.45
    0.0208    0.0790   2278.75
    0.0225    0.0790   2284.29
    0.0242    0.0790   2290.07
    0.0254    0.0790   2294.49
    0.0261    0.0790   2297.49
    0.0269    0.0790   2300.81
    0.0276    0.0790   2304.44
    0.0286    0.0790   2309.61
    0.0299    0.0790   2316.33
    0.0000    0.0817   2238.64
    0.0007    0.0817   2238.64
    0.0020    0.0817   2238.94
    0.0033    0.0817   2239.53
    0.0047    0.0817   2240.41
    0.0060    0.0817   2241.59
    0.0073    0.0817   2243.07
    0.0086    0.0817   2244.74
    0.0097    0.0817   2246.59
    0.0109    0.0817   2248.74
    0.0121    0.0817   2251.19
    0.0133    0.0817   2253.92
    0.0144    0.0817   2256.92
    0.0158    0.0817   2260.86
    0.0175    0.0817   2265.71
    0.0192    0.0817   2270.77
    0.0208    0.0817   2276.04
    0.0225    0.0817   2281.55
    0.0242    0.0817   2287.29
    0.0254    0.0817   2291.68
    0.0261    0.0817   2294.65
    0.0269    0.0817   2297.94
    0.0276    0.0817   2301.53
    0.0286    0.0817   2306.65
    0.0299    0.0817   2313.28
    0.0000    0.0850   2235.22
    0.0007    0.0850   2235.22
    0.0020    0.0850   2235.51
    0.0033    0.0850   2236.09
    0.0047    0.0850   2236.97
    0.0060    0.0850   2238.13
    0.0073    0.0850   2239.59
    0.0086    0.0850   2241.24
    0.0097    0.0850   2243.08
    0.0109    0.0850   2245.21
    0.0121    0.0850   2247.63
    0.0133    0.0850   2250.33
    0.0144    0.0850   2253.31
    0.0158    0.0850   2257.22
    0.0175    0.0850   2262.03
    0.0192    0.0850   2267.05
    0.0208    0.0850   2272.28
    0.0225    0.0850   2277.74
    0.0242    0.0850   2283.44
    0.0254    0.0850   2287.79
    0.0261    0.0850   2290.74
    0.0269    0.0850   2294.00
    0.0276    0.0850   2297.56
    0.0286    0.0850   2302.64
    0.0299    0.0850   2309.21
    0.0000    0.0883   2231.51
    0.0007    0.0883   2231.51
    0.0020    0.0883   2231.79
    0.0033    0.0883   2232.37
    0.0047    0.0883   2233.22
    0.0060    0.0883   2234.37
    0.0073    0.0883   2235.80
    0.0086    0.0883   2237.42
    0.0097    0.0883   2239.23
    0.0109    0.0883   2241.33
    0.0121    0.0883   2243.71
    0.0133    0.0883   2246.38
    0.0144    0.0883   2249.32
    0.0158    0.0883   2253.19
    0.0175    0.0883   2257.95
    0.0192    0.0883   2262.92
    0.0208    0.0883   2268.11
    0.0225    0.0883   2273.54
    0.0242    0.0883   2279.20
    0.0254    0.0883   2283.53
    0.0261    0.0883   2286.47
    0.0269    0.0883   2289.72
    0.0276    0.0883   2293.27
    0.0286    0.0883   2298.32
    0.0299    0.0883   2304.87
    0.0000    0.0917   2227.56
    0.0007    0.0917   2227.56
    0.0020    0.0917   2227.84
    0.0033    0.0917   2228.40
    0.0047    0.0917   2229.23
    0.0060    0.0917   2230.34
    0.0073    0.0917   2231.73
    0.0086    0.0917   2233.31
    0.0097    0.0917   2235.07
    0.0109    0.0917   2237.13
    0.0121    0.0917   2239.46
    0.0133    0.0917   2242.08
    0.0144    0.0917   2244.98
    0.0158    0.0917   2248.78
    0.0175    0.0917   2253.48
    0.0192    0.0917   2258.39
    0.0208    0.0917   2263.53
    0.0225    0.0917   2268.93
    0.0242    0.0917   2274.57
    0.0254    0.0917   2278.89
    0.0261    0.0917   2281.83
    0.0269    0.0917   2285.08
    0.0276    0.0917   2288.63
    0.0286    0.0917   2293.70
    0.0299    0.0917   2300.26
    0.0000    0.0950   2223.47
    0.0007    0.0950   2223.47
    0.0020    0.0950   2223.73
    0.0033    0.0950   2224.26
    0.0047    0.0950   2225.06
    0.0060    0.0950   2226.12
    0.0073    0.0950   2227.45
    0.0086    0.0950   2228.97
    0.0097    0.0950   2230.67
    0.0109    0.0950   2232.65
    0.0121    0.0950   2234.91
    0.0133    0.0950   2237.45
    0.0144    0.0950   2240.27
    0.0158    0.0950   2243.98
    0.0175    0.0950   2248.58
    0.0192    0.0950   2253.41
    0.0208    0.0950   2258.49
    0.0225    0.0950   2263.85
    0.0242    0.0950   2269.48
    0.0254    0.0950   2273.82
    0.0261    0.0950   2276.78
    0.0269    0.0950   2280.05
    0.0276    0.0950   2283.63
    0.0286    0.0950   2288.73
    0.0299    0.0950   2295.35
    0.0000    0.0983   2219.35
    0.0007    0.0983   2219.35
    0.0020    0.0983   2219.59
    0.0033    0.0983   2220.09
    0.0047    0.0983   2220.83
    0.0060    0.0983   2221.82
    0.0073    0.0983   2223.06
    0.0086    0.0983   2224.48
    0.0097    0.0983   2226.08
    0.0109    0.0983   2227.96
    0.0121    0.0983   2230.10
    0.0133    0.0983   2232.53
    0.0144    0.0983   2235.22
    0.0158    0.0983   2238.79
    0.0175    0.0983   2243.23
    0.0192    0.0983   2247.92
    0.0208    0.0983   2252.90
    0.0225    0.0983   2258.19
    0.0242    0.0983   2263.81
    0.0254    0.0983   2268.19
    0.0261    0.0983   2271.18
    0.0269    0.0983   2274.50
    0.0276    0.0983   2278.13
    0.0286    0.0983   2283.33
    0.0299    0.0983   2290.09
    0.0000    0.1008   2216.44
    0.0007    0.1008   2216.44
    0.0020    0.1008   2216.67
    0.0033    0.1008   2217.12
    0.0047    0.1008   2217.80
    0.0060    0.1008   2218.71
    0.0073    0.1008   2219.86
    0.0086    0.1008   2221.17
    0.0097    0.1008   2222.66
    0.0109    0.1008   2224.41
    0.0121    0.1008   2226.43
    0.0133    0.1008   2228.71
    0.0144    0.1008   2231.26
    0.0158    0.1008   2234.65
    0.0175    0.1008   2238.89
    0.0192    0.1008   2243.39
    0.0208    0.1008   2248.21
    0.0225    0.1008   2253.39
    0.0242    0.1008   2258.97
    0.0254    0.1008   2263.38
    0.0261    0.1008   2266.41
    0.0269    0.1008   2269.78
    0.0276    0.1008   2273.50
    0.0286    0.1008   2278.83
    0.0299    0.1008   2285.83
    0.0000    0.1025   2214.82
    0.0007    0.1025   2214.82
    0.0020    0.1025   2215.03
    0.0033    0.1025   2215.45
    0.0047    0.1025   2216.08
    0.0060    0.1025   2216.93
    0.0073    0.1025   2218.00
    0.0086    0.1025   2219.23
    0.0097    0.1025   2220.62
    0.0109    0.1025   2222.27
    0.0121    0.1025   2224.18
    0.0133    0.1025   2226.35
    0.0144    0.1025   2228.78
    0.0158    0.1025   2232.02
    0.0175    0.1025   2236.08
    0.0192    0.1025   2240.40
    0.0208    0.1025   2245.07
    0.0225    0.1025   2250.13
    0.0242    0.1025   2255.64
    0.0254    0.1025   2260.06
    0.0261    0.1025   2263.10
    0.0269    0.1025   2266.52
    0.0276    0.1025   2270.29
    0.0286    0.1025   2275.72
    0.0299    0.1025   2282.88
    0.0000    0.1042   2213.63
    0.0007    0.1042   2213.63
    0.0020    0.1042   2213.82
    0.0033    0.1042   2214.20
    0.0047    0.1042   2214.78
    0.0060    0.1042   2215.55
    0.0073    0.1042   2216.52
    0.0086    0.1042   2217.65
    0.0097    0.1042   2218.93
    0.0109    0.1042   2220.46
    0.0121    0.1042   2222.24
    0.0133    0.1042   2224.26
    0.0144    0.1042   2226.54
    0.0158    0.1042   2229.59
    0.0175    0.1042   2233.41
    0.0192    0.1042   2237.51
    0.0208    0.1042   2241.95
    0.0225    0.1042   2246.82
    0.0242    0.1042   2252.20
    0.0254    0.1042   2256.59
    0.0261    0.1042   2259.64
    0.0269    0.1042   2263.09
    0.0276    0.1042   2266.91
    0.0286    0.1042   2272.45
    0.0299    0.1042   2279.81
    0.0000    0.1058   2212.91
    0.0007    0.1058   2212.91
    0.0020    0.1058   2213.08
    0.0033    0.1058   2213.42
    0.0047    0.1058   2213.92
    0.0060    0.1058   2214.61
    0.0073    0.1058   2215.47
    0.0086    0.1058   2216.47
    0.0097    0.1058   2217.62
    0.0109    0.1058   2219.01
    0.0121    0.1058   2220.63
    0.0133    0.1058   2222.48
    0.0144    0.1058   2224.58
    0.0158    0.1058   2227.40
    0.0175    0.1058   2230.92
    0.0192    0.1058   2234.71
    0.0208    0.1058   2238.83
    0.0225    0.1058   2243.41
    0.0242    0.1058   2248.55
    0.0254    0.1058   2252.85
    0.0261    0.1058   2255.88
    0.0269    0.1058   2259.35
    0.0276    0.1058   2263.24
    0.0286    0.1058   2268.92
    0.0299    0.1058   2276.56
    0.0000    0.1075   2212.73
    0.0007    0.1075   2212.73
    0.0020    0.1075   2212.87
    0.0033    0.1075   2213.16
    0.0047    0.1075   2213.58
    0.0060    0.1075   2214.16
    0.0073    0.1075   2214.89
    0.0086    0.1075   2215.75
    0.0097    0.1075   2216.75
    0.0109    0.1075   2217.96
    0.0121    0.1075   2219.40
    0.0133    0.1075   2221.05
    0.0144    0.1075   2222.94
    0.0158    0.1075   2225.47
    0.0175    0.1075   2228.64
    0.0192    0.1075   2232.02
    0.0208    0.1075   2235.72
    0.0225    0.1075   2239.86
    0.0242    0.1075   2244.59
    0.0254    0.1075   2248.67
    0.0261    0.1075   2251.62
    0.0269    0.1075   2255.07
    0.0276    0.1075   2259.03
    0.0286    0.1075   2264.91
    0.0299    0.1075   2273.04
    0.0000    0.1092   2213.14
    0.0007    0.1092   2213.14
    0.0020    0.1092   2213.26
    0.0033    0.1092   2213.48
    0.0047    0.1092   2213.83
    0.0060    0.1092   2214.29
    0.0073    0.1092   2214.86
    0.0086    0.1092   2215.54
    0.0097    0.1092   2216.36
    0.0109    0.1092   2217.38
    0.0121    0.1092   2218.60
    0.0133    0.1092   2220.03
    0.0144    0.1092   2221.68
    0.0158    0.1092   2223.89
    0.0175    0.1092   2226.62
    0.0192    0.1092   2229.51
    0.0208    0.1092   2232.66
    0.0225    0.1092   2236.17
    0.0242    0.1092   2240.22
    0.0254    0.1092   2243.81
    0.0261    0.1092   2246.53
    0.0269    0.1092   2249.85
    0.0276    0.1092   2253.83
    0.0286    0.1092   2259.98
    0.0299    0.1092   2269.10
    0.0000    0.1115   2214.58
    0.0007    0.1115   2214.58
    0.0020    0.1115   2214.65
    0.0033    0.1115   2214.80
    0.0047    0.1115   2215.02
    0.0060    0.1115   2215.30
    0.0073    0.1115   2215.62
    0.0086    0.1115   2216.02
    0.0097    0.1115   2216.53
    0.0109    0.1115   2217.22
    0.0121    0.1115   2218.09
    0.0133    0.1115   2219.16
    0.0144    0.1115   2220.48
    0.0158    0.1115   2222.22
    0.0175    0.1115   2224.25
    0.0192    0.1115   2226.30
    0.0208    0.1115   2228.50
    0.0225    0.1115   2230.90
    0.0242    0.1115   2233.50
    0.0254    0.1115   2235.48
    0.0261    0.1115   2237.41
    0.0269    0.1115   2240.15
    0.0276    0.1115   2243.78
    0.0286    0.1115   2249.96
    0.0299    0.1115   2262.90
    0.0000    0.1145   2210.49
    0.0007    0.1145   2210.49
    0.0020    0.1145   2210.58
    0.0033    0.1145   2210.77
    0.0047    0.1145   2211.05
    0.0060    0.1145   2211.43
    0.0073    0.1145   2211.90
    0.0086    0.1145   2212.47
    0.0097    0.1145   2213.17
    0.0109    0.1145   2214.04
    0.0121    0.1145   2215.09
    0.0133    0.1145   2216.34
    0.0144    0.1145   2217.78
    0.0158    0.1145   2219.72
    0.0175    0.1145   2222.08
    0.0192    0.1145   2224.56
    0.0208    0.1145   2227.24
    0.0225    0.1145   2230.24
    0.0242    0.1145   2233.70
    0.0254    0.1145   2236.82
    0.0261    0.1145   2239.21
    0.0269    0.1145   2242.16
    0.0276    0.1145   2245.72
    0.0286    0.1145   2251.25
    0.0299    0.1145   2259.47
    0.0000    0.1175   2206.17
    0.0007    0.1175   2206.17
    0.0020    0.1175   2206.29
    0.0033    0.1175   2206.52
    0.0047    0.1175   2206.87
    0.0060    0.1175   2207.35
    0.0073    0.1175   2207.96
    0.0086    0.1175   2208.66
    0.0097    0.1175   2209.50
    0.0109    0.1175   2210.53
    0.0121    0.1175   2211.74
    0.0133    0.1175   2213.15
    0.0144    0.1175   2214.75
    0.0158    0.1175   2216.90
    0.0175    0.1175   2219.53
    0.0192    0.1175   2222.31
    0.0208    0.1175   2225.30
    0.0225    0.1175   2228.55
    0.0242    0.1175   2232.14
    0.0254    0.1175   2235.07
    0.0261    0.1175   2237.16
    0.0269    0.1175   2239.57
    0.0276    0.1175   2242.27
    0.0286    0.1175   2246.13
    0.0299    0.1175   2250.79
    0.0000    0.1205   2202.84
    0.0007    0.1205   2202.84
    0.0020    0.1205   2202.97
    0.0033    0.1205   2203.23
    0.0047    0.1205   2203.63
    0.0060    0.1205   2204.17
    0.0073    0.1205   2204.85
    0.0086    0.1205   2205.64
    0.0097    0.1205   2206.56
    0.0109    0.1205   2207.67
    0.0121    0.1205   2208.97
    0.0133    0.1205   2210.47
    0.0144    0.1205   2212.16
    0.0158    0.1205   2214.42
    0.0175    0.1205   2217.18
    0.0192    0.1205   2220.08
    0.0208    0.1205   2223.14
    0.0225    0.1205   2226.42
    0.0242    0.1205   2229.93
    0.0254    0.1205   2232.70
    0.0261    0.1205   2234.67
    0.0269    0.1205   2236.94
    0.0276    0.1205   2239.50
    0.0286    0.1205   2243.22
    0.0299    0.1205   2248.08
    0.0000    0.1235   2200.36
    0.0007    0.1235   2200.36
    0.0020    0.1235   2200.50
    0.0033    0.1235   2200.78
    0.0047    0.1235   2201.20
    0.0060    0.1235   2201.76
    0.0073    0.1235   2202.48
    0.0086    0.1235   2203.30
    0.0097    0.1235   2204.25
    0.0109    0.1235   2205.39
    0.0121    0.1235   2206.73
    0.0133    0.1235   2208.25
    0.0144    0.1235   2209.97
    0.0158    0.1235   2212.26
    0.0175    0.1235   2215.04
    0.0192    0.1235   2217.94
    0.0208    0.1235   2220.97
    0.0225    0.1235   2224.17
    0.0242    0.1235   2227.57
    0.0254    0.1235   2230.22
    0.0261    0.1235   2232.11
    0.0269    0.1235   2234.29
    0.0276    0.1235   2236.77
    0.0286    0.1235   2240.39
    0.0299    0.1235   2245.15
    0.0000    0.1265   2198.65
    0.0007    0.1265   2198.65
    0.0020    0.1265   2198.79
    0.0033    0.1265   2199.08
    0.0047    0.1265   2199.51
    0.0060    0.1265   2200.08
    0.0073    0.1265   2200.79
    0.0086    0.1265   2201.62
    0.0097    0.1265   2202.56
    0.0109    0.1265   2203.70
    0.0121    0.1265   2205.02
    0.0133    0.1265   2206.52
    0.0144    0.1265   2208.22
    0.0158    0.1265   2210.46
    0.0175    0.1265   2213.18
    0.0192    0.1265   2215.99
    0.0208    0.1265   2218.92
    0.0225    0.1265   2222.00
    0.0242    0.1265   2225.23
    0.0254    0.1265   2227.75
    0.0261    0.1265   2229.55
    0.0269    0.1265   2231.65
    0.0276    0.1265   2234.05
    0.0286    0.1265   2237.58
    0.0299    0.1265   2242.27
    0.0000    0.1286   2198.06
    0.0007    0.1286   2198.06
    0.0020    0.1286   2198.20
    0.0033    0.1286   2198.48
    0.0047    0.1286   2198.91
    0.0060    0.1286   2199.47
    0.0073    0.1286   2200.18
    0.0086    0.1286   2200.99
    0.0097    0.1286   2201.92
    0.0109    0.1286   2203.02
    0.0121    0.1286   2204.31
    0.0133    0.1286   2205.76
    0.0144    0.1286   2207.40
    0.0158    0.1286   2209.57
    0.0175    0.1286   2212.20
    0.0192    0.1286   2214.91
    0.0208    0.1286   2217.74
    0.0225    0.1286   2220.69
    0.0242    0.1286   2223.78
    0.0254    0.1286   2226.16
    0.0261    0.1286   2227.87
    0.0269    0.1286   2229.87
    0.0276    0.1286   2232.15
    0.0286    0.1286   2235.51
    0.0299    0.1286   2239.96
    0.0000    0.1297   2198.06
    0.0007    0.1297   2198.06
    0.0020    0.1297   2198.20
    0.0033    0.1297   2198.49
    0.0047    0.1297   2198.91
    0.0060    0.1297   2199.47
    0.0073    0.1297   2200.18
    0.0086    0.1297   2200.98
    0.0097    0.1297   2201.89
    0.0109    0.1297   2202.98
    0.0121    0.1297   2204.23
    0.0133    0.1297   2205.66
    0.0144    0.1297   2207.25
    0.0158    0.1297   2209.37
    0.0175    0.1297   2211.94